Graphimine – 23842 atoms, 62880 bonds

23842 atoms
62880 bonds

1 atom types
1 bond types

-25.000000 25.000000 xlo xhi
-25.000000 25.000000 ylo yhi
-25.000000 25.000000 zlo zhi

Masses

1 1.0

Atoms  # id mol type x y z

1 1 1 10.821450 -26.939549 -11.248534
2 1 1 10.988978 -25.953682 -11.248534
3 1 1 11.156506 -24.967814 -11.248534
4 1 1 11.324035 -23.981947 -11.248534
5 1 1 11.491563 -22.996080 -11.248534
6 1 1 11.659091 -22.010212 -11.248534
7 1 1 9.883900 -27.287399 -11.248534
8 1 1 10.051428 -26.301532 -11.248534
9 1 1 10.218956 -25.315664 -11.248534
10 1 1 10.386484 -24.329797 -11.248534
11 1 1 10.554013 -23.343930 -11.248534
12 1 1 10.721541 -22.358062 -11.248534
13 1 1 10.889069 -21.372195 -11.248534
14 1 1 8.946350 -27.635249 -11.248534
15 1 1 9.113878 -26.649381 -11.248534
16 1 1 9.281406 -25.663514 -11.248534
17 1 1 9.448934 -24.677647 -11.248534
18 1 1 9.616462 -23.691780 -11.248534
19 1 1 9.783991 -22.705912 -11.248534
20 1 1 9.951519 -21.720045 -11.248534
21 1 1 10.119047 -20.734178 -11.248534
22 1 1 8.008799 -27.983099 -11.248534
23 1 1 8.176328 -26.997231 -11.248534
24 1 1 8.343856 -26.011364 -11.248534
25 1 1 8.511384 -25.025497 -11.248534
26 1 1 8.678912 -24.039630 -11.248534
27 1 1 8.846440 -23.053762 -11.248534
28 1 1 9.013969 -22.067895 -11.248534
29 1 1 9.181497 -21.082028 -11.248534
30 1 1 9.349025 -20.096160 -11.248534
31 1 1 7.071249 -28.330949 -11.248534
32 1 1 7.238777 -27.345081 -11.248534
33 1 1 7.406306 -26.359214 -11.248534
34 1 1 7.573834 -25.373347 -11.248534
35 1 1 7.741362 -24.387480 -11.248534
36 1 1 7.908890 -23.401612 -11.248534
37 1 1 8.076418 -22.415745 -11.248534
38 1 1 8.243947 -21.429878 -11.248534
39 1 1 8.411475 -20.444010 -11.248534
40 1 1 8.579003 -19.458143 -11.248534
41 1 1 6.133699 -28.678799 -11.248534
42 1 1 6.301227 -27.692931 -11.248534
43 1 1 6.468755 -26.707064 -11.248534
44 1 1 6.636284 -25.721197 -11.248534
45 1 1 6.803812 -24.735330 -11.248534
46 1 1 6.971340 -23.749462 -11.248534
47 1 1 7.138868 -22.763595 -11.248534
48 1 1 7.306396 -21.777728 -11.248534
49 1 1 7.473925 -20.791860 -11.248534
50 1 1 7.641453 -19.805993 -11.248534
51 1 1 7.808981 -18.820126 -11.248534
52 1 1 5.363677 -28.040781 -11.248534
53 1 1 5.531205 -27.054914 -11.248534
54 1 1 5.698733 -26.069047 -11.248534
55 1 1 5.866262 -25.083179 -11.248534
56 1 1 6.033790 -24.097312 -11.248534
57 1 1 6.201318 -23.111445 -11.248534
58 1 1 6.368846 -22.125578 -11.248534
59 1 1 6.536374 -21.139710 -11.248534
60 1 1 6.703903 -20.153843 -11.248534
61 1 1 6.871431 -19.167976 -11.248534
62 1 1 4.593655 -27.402764 -11.248534
63 1 1 4.761183 -26.416897 -11.248534
64 1 1 4.928711 -25.431029 -11.248534
65 1 1 5.096239 -24.445162 -11.248534
66 1 1 5.263768 -23.459295 -11.248534
67 1 1 5.431296 -22.473428 -11.248534
68 1 1 5.598824 -21.487560 -11.248534
69 1 1 5.766352 -20.501693 -11.248534
70 1 1 5.933880 -19.515826 -11.248534
71 1 1 3.823633 -26.764747 -11.248534
72 1 1 3.991161 -25.778879 -11.248534
73 1 1 4.158689 -24.793012 -11.248534
74 1 1 4.326217 -23.807145 -11.248534
75 1 1 4.493746 -22.821278 -11.248534
76 1 1 4.661274 -21.835410 -11.248534
77 1 1 4.828802 -20.849543 -11.248534
78 1 1 4.996330 -19.863676 -11.248534
79 1 1 3.053611 -26.126729 -11.248534
80 1 1 3.221139 -25.140862 -11.248534
81 1 1 3.388667 -24.154995 -11.248534
82 1 1 3.556195 -23.169128 -11.248534
83 1 1 3.723724 -22.183260 -11.248534
84 1 1 3.891252 -21.197393 -11.248534
85 1 1 4.058780 -20.211526 -11.248534
86 1 1 2.283589 -25.488712 -11.248534
87 1 1 2.451117 -24.502845 -11.248534
88 1 1 2.618645 -23.516978 -11.248534
89 1 1 2.786173 -22.531110 -11.248534
90 1 1 2.953702 -21.545243 -11.248534
91 1 1 3.121230 -20.559376 -11.248534
92 2 1 11.936821 3.836257 19.608978
93 2 1 12.791298 4.355746 19.608978
94 2 1 13.645775 4.875235 19.608978
95 2 1 14.500253 5.394724 19.608978
96 2 1 15.354730 5.914213 19.608978
97 2 1 16.209207 6.433702 19.608978
98 2 1 11.059692 4.316512 19.608978
99 2 1 11.914169 4.836001 19.608978
100 2 1 12.768646 5.355490 19.608978
101 2 1 13.623123 5.874979 19.608978
102 2 1 14.477600 6.394468 19.608978
103 2 1 15.332078 6.913957 19.608978
104 2 1 16.186555 7.433446 19.608978
105 2 1 10.182563 4.796766 19.608978
106 2 1 11.037040 5.316255 19.608978
107 2 1 11.891517 5.835744 19.608978
108 2 1 12.745994 6.355233 19.608978
109 2 1 13.600471 6.874722 19.608978
110 2 1 14.454948 7.394211 19.608978
111 2 1 15.309426 7.913700 19.608978
112 2 1 16.163903 8.433189 19.608978
113 2 1 9.305433 5.277021 19.608978
114 2 1 10.159911 5.796510 19.608978
115 2 1 11.014388 6.315999 19.608978
116 2 1 11.868865 6.835488 19.608978
117 2 1 12.723342 7.354977 19.608978
118 2 1 13.577819 7.874466 19.608978
119 2 1 14.432296 8.393955 19.608978
120 2 1 15.286773 8.913443 19.608978
121 2 1 16.141251 9.432932 19.608978
122 2 1 8.428304 5.757275 19.608978
123 2 1 9.282781 6.276764 19.608978
124 2 1 10.137258 6.796253 19.608978
125 2 1 10.991736 7.315742 19.608978
126 2 1 11.846213 7.835231 19.608978
127 2 1 12.700690 8.354720 19.608978
128 2 1 13.555167 8.874209 19.608978
129 2 1 14.409644 9.393698 19.608978
130 2 1 15.264121 9.913187 19.608978
131 2 1 16.118599 10.432676 19.608978
132 2 1 7.551175 6.237529 19.608978
133 2 1 8.405652 6.757018 19.608978
134 2 1 9.260129 7.276507 19.608978
135 2 1 10.114606 7.795996 19.608978
136 2 1 10.969084 8.315485 19.608978
137 2 1 11.823561 8.834974 19.608978
138 2 1 12.678038 9.354463 19.608978
139 2 1 13.532515 9.873952 19.608978
140 2 1 14.386992 10.393441 19.608978
141 2 1 15.241469 10.912930 19.608978
142 2 1 16.095946 11.432419 19.608978
143 2 1 7.528523 7.237273 19.608978
144 2 1 8.383000 7.756762 19.608978
145 2 1 9.237477 8.276251 19.608978
146 2 1 10.091954 8.795740 19.608978
147 2 1 10.946431 9.315229 19.608978
148 2 1 11.800909 9.834718 19.608978
149 2 1 12.655386 10.354207 19.608978
150 2 1 13.509863 10.873696 19.608978
151 2 1 14.364340 11.393185 19.608978
152 2 1 15.218817 11.912674 19.608978
153 2 1 7.505871 8.237016 19.608978
154 2 1 8.360348 8.756505 19.608978
155 2 1 9.214825 9.275994 19.608978
156 2 1 10.069302 9.795483 19.608978
157 2 1 10.923779 10.314972 19.608978
158 2 1 11.778257 10.834461 19.608978
159 2 1 12.632734 11.353950 19.608978
160 2 1 13.487211 11.873439 19.608978
161 2 1 14.341688 12.392928 19.608978
162 2 1 7.483219 9.236760 19.608978
163 2 1 8.337696 9.756249 19.608978
164 2 1 9.192173 10.275738 19.608978
165 2 1 10.046650 10.795227 19.608978
166 2 1 10.901127 11.314716 19.608978
167 2 1 11.755604 11.834205 19.608978
168 2 1 12.610082 12.353694 19.608978
169 2 1 13.464559 12.873183 19.608978
170 2 1 7.460567 10.236503 19.608978
171 2 1 8.315044 10.755992 19.608978
172 2 1 9.169521 11.275481 19.608978
173 2 1 10.023998 11.794970 19.608978
174 2 1 10.878475 12.314459 19.608978
175 2 1 11.732952 12.833948 19.608978
176 2 1 12.587430 13.353437 19.608978
177 2 1 7.437915 11.236246 19.608978
178 2 1 8.292392 11.755735 19.608978
179 2 1 9.146869 12.275224 19.608978
180 2 1 10.001346 12.794713 19.608978
181 2 1 10.855823 13.314202 19.608978
182 2 1 11.710300 13.833691 19.608978
183 3 1 -1.550998 -19.098358 -14.068101
184 3 1 -2.550432 -19.132000 -14.068101
185 3 1 -3.549866 -19.165642 -14.068101
186 3 1 -4.549300 -19.199284 -14.068101
187 3 1 -5.548734 -19.232926 -14.068101
188 3 1 -6.548168 -19.266568 -14.068101
189 3 1 -1.022146 -19.947073 -14.068101
190 3 1 -2.021580 -19.980714 -14.068101
191 3 1 -3.021014 -20.014356 -14.068101
192 3 1 -4.020448 -20.047998 -14.068101
193 3 1 -5.019882 -20.081640 -14.068101
194 3 1 -6.019316 -20.115282 -14.068101
195 3 1 -7.018750 -20.148924 -14.068101
196 3 1 -0.493294 -20.795787 -14.068101
197 3 1 -1.492728 -20.829429 -14.068101
198 3 1 -2.492162 -20.863071 -14.068101
199 3 1 -3.491596 -20.896712 -14.068101
200 3 1 -4.491030 -20.930354 -14.068101
201 3 1 -5.490464 -20.963996 -14.068101
202 3 1 -6.489898 -20.997638 -14.068101
203 3 1 -7.489332 -21.031280 -14.068101
204 3 1 0.035557 -21.644501 -14.068101
205 3 1 -0.963877 -21.678143 -14.068101
206 3 1 -1.963311 -21.711785 -14.068101
207 3 1 -2.962745 -21.745427 -14.068101
208 3 1 -3.962179 -21.779069 -14.068101
209 3 1 -4.961612 -21.812711 -14.068101
210 3 1 -5.961046 -21.846352 -14.068101
211 3 1 -6.960480 -21.879994 -14.068101
212 3 1 -7.959914 -21.913636 -14.068101
213 3 1 0.564409 -22.493215 -14.068101
214 3 1 -0.435025 -22.526857 -14.068101
215 3 1 -1.434459 -22.560499 -14.068101
216 3 1 -2.433893 -22.594141 -14.068101
217 3 1 -3.433327 -22.627783 -14.068101
218 3 1 -4.432761 -22.661425 -14.068101
219 3 1 -5.432195 -22.695067 -14.068101
220 3 1 -6.431629 -22.728709 -14.068101
221 3 1 -7.431063 -22.762351 -14.068101
222 3 1 -8.430497 -22.795992 -14.068101
223 3 1 1.093261 -23.341929 -14.068101
224 3 1 0.093827 -23.375571 -14.068101
225 3 1 -0.905607 -23.409213 -14.068101
226 3 1 -1.905041 -23.442855 -14.068101
227 3 1 -2.904475 -23.476497 -14.068101
228 3 1 -3.903909 -23.510139 -14.068101
229 3 1 -4.903343 -23.543781 -14.068101
230 3 1 -5.902777 -23.577423 -14.068101
231 3 1 -6.902211 -23.611065 -14.068101
232 3 1 -7.901645 -23.644707 -14.068101
233 3 1 -8.901079 -23.678349 -14.068101
234 3 1 0.622679 -24.224286 -14.068101
235 3 1 -0.376755 -24.257928 -14.068101
236 3 1 -1.376189 -24.291569 -14.068101
237 3 1 -2.375623 -24.325211 -14.068101
238 3 1 -3.375057 -24.358853 -14.068101
239 3 1 -4.374491 -24.392495 -14.068101
240 3 1 -5.373925 -24.426137 -14.068101
241 3 1 -6.373359 -24.459779 -14.068101
242 3 1 -7.372793 -24.493421 -14.068101
243 3 1 -8.372227 -24.527063 -14.068101
244 3 1 0.152096 -25.106642 -14.068101
245 3 1 -0.847338 -25.140284 -14.068101
246 3 1 -1.846772 -25.173926 -14.068101
247 3 1 -2.846206 -25.207567 -14.068101
248 3 1 -3.845640 -25.241209 -14.068101
249 3 1 -4.845073 -25.274851 -14.068101
250 3 1 -5.844507 -25.308493 -14.068101
251 3 1 -6.843941 -25.342135 -14.068101
252 3 1 -7.843375 -25.375777 -14.068101
253 3 1 -0.318486 -25.988998 -14.068101
254 3 1 -1.317920 -26.022640 -14.068101
255 3 1 -2.317354 -26.056282 -14.068101
256 3 1 -3.316788 -26.089924 -14.068101
257 3 1 -4.316222 -26.123566 -14.068101
258 3 1 -5.315656 -26.157207 -14.068101
259 3 1 -6.315090 -26.190849 -14.068101
260 3 1 -7.314524 -26.224491 -14.068101
261 3 1 -0.789068 -26.871354 -14.068101
262 3 1 -1.788502 -26.904996 -14.068101
263 3 1 -2.787936 -26.938638 -14.068101
264 3 1 -3.787370 -26.972280 -14.068101
265 3 1 -4.786804 -27.005922 -14.068101
266 3 1 -5.786238 -27.039564 -14.068101
267 3 1 -6.785672 -27.073206 -14.068101
268 3 1 -1.259650 -27.753710 -14.068101
269 3 1 -2.259084 -27.787352 -14.068101
270 3 1 -3.258518 -27.820994 -14.068101
271 3 1 -4.257952 -27.854636 -14.068101
272 3 1 -5.257386 -27.888278 -14.068101
273 3 1 -6.256820 -27.921920 -14.068101
274 4 1 -22.478749 -10.202885 7.494222
275 4 1 -23.439145 -10.481523 7.494222
276 4 1 -24.399541 -10.760161 7.494222
277 4 1 -25.359938 -11.038799 7.494222
278 4 1 -26.320334 -11.317437 7.494222
279 4 1 -27.280730 -11.596075 7.494222
280 4 1 -21.757243 -10.895293 7.494222
281 4 1 -22.717639 -11.173931 7.494222
282 4 1 -23.678036 -11.452569 7.494222
283 4 1 -24.638432 -11.731207 7.494222
284 4 1 -25.598828 -12.009845 7.494222
285 4 1 -26.559224 -12.288483 7.494222
286 4 1 -27.519620 -12.567121 7.494222
287 4 1 -21.035738 -11.587702 7.494222
288 4 1 -21.996134 -11.866340 7.494222
289 4 1 -22.956530 -12.144978 7.494222
290 4 1 -23.916926 -12.423616 7.494222
291 4 1 -24.877322 -12.702254 7.494222
292 4 1 -25.837719 -12.980892 7.494222
293 4 1 -26.798115 -13.259530 7.494222
294 4 1 -27.758511 -13.538168 7.494222
295 4 1 -20.314232 -12.280110 7.494222
296 4 1 -21.274628 -12.558748 7.494222
297 4 1 -22.235024 -12.837386 7.494222
298 4 1 -23.195420 -13.116024 7.494222
299 4 1 -24.155817 -13.394662 7.494222
300 4 1 -25.116213 -13.673300 7.494222
301 4 1 -26.076609 -13.951938 7.494222
302 4 1 -27.037005 -14.230576 7.494222
303 4 1 -27.997401 -14.509214 7.494222
304 4 1 -19.592726 -12.972519 7.494222
305 4 1 -20.553122 -13.251157 7.494222
306 4 1 -21.513519 -13.529795 7.494222
307 4 1 -22.473915 -13.808433 7.494222
308 4 1 -23.434311 -14.087071 7.494222
309 4 1 -24.394707 -14.365709 7.494222
310 4 1 -25.355103 -14.644347 7.494222
311 4 1 -26.315500 -14.922985 7.494222
312 4 1 -27.275896 -15.201623 7.494222
313 4 1 -28.236292 -15.480261 7.494222
314 4 1 -18.871221 -13.664927 7.494222
315 4 1 -19.831617 -13.943565 7.494222
316 4 1 -20.792013 -14.222203 7.494222
317 4 1 -21.752409 -14.500841 7.494222
318 4 1 -22.712805 -14.779479 7.494222
319 4 1 -23.673202 -15.058117 7.494222
320 4 1 -24.633598 -15.336755 7.494222
321 4 1 -25.593994 -15.615393 7.494222
322 4 1 -26.554390 -15.894031 7.494222
323 4 1 -27.514786 -16.172669 7.494222
324 4 1 -28.475183 -16.451307 7.494222
325 4 1 -19.110111 -14.635974 7.494222
326 4 1 -20.070507 -14.914612 7.494222
327 4 1 -21.030903 -15.193250 7.494222
328 4 1 -21.991300 -15.471888 7.494222
329 4 1 -22.951696 -15.750526 7.494222
330 4 1 -23.912092 -16.029164 7.494222
331 4 1 -24.872488 -16.307802 7.494222
332 4 1 -25.832884 -16.586440 7.494222
333 4 1 -26.793281 -16.865078 7.494222
334 4 1 -27.753677 -17.143716 7.494222
335 4 1 -19.349002 -15.607020 7.494222
336 4 1 -20.309398 -15.885658 7.494222
337 4 1 -21.269794 -16.164296 7.494222
338 4 1 -22.230190 -16.442934 7.494222
339 4 1 -23.190586 -16.721572 7.494222
340 4 1 -24.150983 -17.000210 7.494222
341 4 1 -25.111379 -17.278848 7.494222
342 4 1 -26.071775 -17.557486 7.494222
343 4 1 -27.032171 -17.836124 7.494222
344 4 1 -19.587892 -16.578067 7.494222
345 4 1 -20.548288 -16.856705 7.494222
346 4 1 -21.508684 -17.135343 7.494222
347 4 1 -22.469081 -17.413981 7.494222
348 4 1 -23.429477 -17.692619 7.494222
349 4 1 -24.389873 -17.971257 7.494222
350 4 1 -25.350269 -18.249895 7.494222
351 4 1 -26.310665 -18.528533 7.494222
352 4 1 -19.826783 -17.549114 7.494222
353 4 1 -20.787179 -17.827752 7.494222
354 4 1 -21.747575 -18.106390 7.494222
355 4 1 -22.707971 -18.385028 7.494222
356 4 1 -23.668367 -18.663666 7.494222
357 4 1 -24.628764 -18.942303 7.494222
358 4 1 -25.589160 -19.220941 7.494222
359 4 1 -20.065673 -18.520160 7.494222
360 4 1 -21.026069 -18.798798 7.494222
361 4 1 -21.986465 -19.077436 7.494222
362 4 1 -22.946862 -19.356074 7.494222
363 4 1 -23.907258 -19.634712 7.494222
364 4 1 -24.867654 -19.913350 7.494222
365 5 1 -16.299122 0.034713 15.471523
366 5 1 -15.299956 0.075534 15.471523
367 5 1 -14.300790 0.116356 15.471523
368 5 1 -13.301623 0.157177 15.471523
369 5 1 -12.302457 0.197999 15.471523
370 5 1 -11.303290 0.238820 15.471523
371 5 1 -16.834058 0.879605 15.471523
372 5 1 -15.834892 0.920427 15.471523
373 5 1 -14.835725 0.961249 15.471523
374 5 1 -13.836559 1.002070 15.471523
375 5 1 -12.837392 1.042892 15.471523
376 5 1 -11.838226 1.083713 15.471523
377 5 1 -10.839059 1.124535 15.471523
378 5 1 -17.368994 1.724498 15.471523
379 5 1 -16.369827 1.765320 15.471523
380 5 1 -15.370661 1.806141 15.471523
381 5 1 -14.371495 1.846963 15.471523
382 5 1 -13.372328 1.887784 15.471523
383 5 1 -12.373162 1.928606 15.471523
384 5 1 -11.373995 1.969428 15.471523
385 5 1 -10.374829 2.010249 15.471523
386 5 1 -17.903930 2.569391 15.471523
387 5 1 -16.904763 2.610212 15.471523
388 5 1 -15.905597 2.651034 15.471523
389 5 1 -14.906430 2.691856 15.471523
390 5 1 -13.907264 2.732677 15.471523
391 5 1 -12.908097 2.773499 15.471523
392 5 1 -11.908931 2.814320 15.471523
393 5 1 -10.909765 2.855142 15.471523
394 5 1 -9.910598 2.895963 15.471523
395 5 1 -18.438865 3.414284 15.471523
396 5 1 -17.439699 3.455105 15.471523
397 5 1 -16.440533 3.495927 15.471523
398 5 1 -15.441366 3.536748 15.471523
399 5 1 -14.442200 3.577570 15.471523
400 5 1 -13.443033 3.618391 15.471523
401 5 1 -12.443867 3.659213 15.471523
402 5 1 -11.444700 3.700035 15.471523
403 5 1 -10.445534 3.740856 15.471523
404 5 1 -9.446367 3.781678 15.471523
405 5 1 -18.973801 4.259176 15.471523
406 5 1 -17.974635 4.299998 15.471523
407 5 1 -16.975468 4.340819 15.471523
408 5 1 -15.976302 4.381641 15.471523
409 5 1 -14.977135 4.422463 15.471523
410 5 1 -13.977969 4.463284 15.471523
411 5 1 -12.978802 4.504106 15.471523
412 5 1 -11.979636 4.544927 15.471523
413 5 1 -10.980470 4.585749 15.471523
414 5 1 -9.981303 4.626570 15.471523
415 5 1 -8.982137 4.667392 15.471523
416 5 1 -18.509570 5.144891 15.471523
417 5 1 -17.510404 5.185712 15.471523
418 5 1 -16.511238 5.226534 15.471523
419 5 1 -15.512071 5.267355 15.471523
420 5 1 -14.512905 5.308177 15.471523
421 5 1 -13.513738 5.348999 15.471523
422 5 1 -12.514572 5.389820 15.471523
423 5 1 -11.515405 5.430642 15.471523
424 5 1 -10.516239 5.471463 15.471523
425 5 1 -9.517072 5.512285 15.471523
426 5 1 -18.045340 6.030605 15.471523
427 5 1 -17.046173 6.071427 15.471523
428 5 1 -16.047007 6.112248 15.471523
429 5 1 -15.047840 6.153070 15.471523
430 5 1 -14.048674 6.193891 15.471523
431 5 1 -13.049507 6.234713 15.471523
432 5 1 -12.050341 6.275534 15.471523
433 5 1 -11.051175 6.316356 15.471523
434 5 1 -10.052008 6.357178 15.471523
435 5 1 -17.581109 6.916319 15.471523
436 5 1 -16.581943 6.957141 15.471523
437 5 1 -15.582776 6.997962 15.471523
438 5 1 -14.583610 7.038784 15.471523
439 5 1 -13.584443 7.079606 15.471523
440 5 1 -12.585277 7.120427 15.471523
441 5 1 -11.586110 7.161249 15.471523
442 5 1 -10.586944 7.202070 15.471523
443 5 1 -17.116878 7.802034 15.471523
444 5 1 -16.117712 7.842855 15.471523
445 5 1 -15.118545 7.883677 15.471523
446 5 1 -14.119379 7.924498 15.471523
447 5 1 -13.120212 7.965320 15.471523
448 5 1 -12.121046 8.006141 15.471523
449 5 1 -11.121880 8.046963 15.471523
450 5 1 -16.652648 8.687748 15.471523
451 5 1 -15.653481 8.728569 15.471523
452 5 1 -14.654315 8.769391 15.471523
453 5 1 -13.655148 8.810213 15.471523
454 5 1 -12.655982 8.851034 15.471523
455 5 1 -11.656815 8.891856 15.471523
456 6 1 17.480671 5.411953 -7.987474
457 6 1 18.040260 6.240723 -7.987474
458 6 1 18.599849 7.069493 -7.987474
459 6 1 19.159438 7.898263 -7.987474
460 6 1 19.719027 8.727034 -7.987474
461 6 1 20.278616 9.555804 -7.987474
462 6 1 16.483140 5.482186 -7.987474
463 6 1 17.042729 6.310956 -7.987474
464 6 1 17.602318 7.139726 -7.987474
465 6 1 18.161907 7.968497 -7.987474
466 6 1 18.721496 8.797267 -7.987474
467 6 1 19.281085 9.626037 -7.987474
468 6 1 19.840674 10.454807 -7.987474
469 6 1 15.485609 5.552419 -7.987474
470 6 1 16.045198 6.381189 -7.987474
471 6 1 16.604787 7.209959 -7.987474
472 6 1 17.164376 8.038730 -7.987474
473 6 1 17.723965 8.867500 -7.987474
474 6 1 18.283554 9.696270 -7.987474
475 6 1 18.843143 10.525040 -7.987474
476 6 1 19.402732 11.353811 -7.987474
477 6 1 14.488079 5.622652 -7.987474
478 6 1 15.047668 6.451422 -7.987474
479 6 1 15.607257 7.280193 -7.987474
480 6 1 16.166846 8.108963 -7.987474
481 6 1 16.726435 8.937733 -7.987474
482 6 1 17.286024 9.766503 -7.987474
483 6 1 17.845613 10.595274 -7.987474
484 6 1 18.405202 11.424044 -7.987474
485 6 1 18.964791 12.252814 -7.987474
486 6 1 13.490548 5.692885 -7.987474
487 6 1 14.050137 6.521656 -7.987474
488 6 1 14.609726 7.350426 -7.987474
489 6 1 15.169315 8.179196 -7.987474
490 6 1 15.728904 9.007966 -7.987474
491 6 1 16.288493 9.836737 -7.987474
492 6 1 16.848082 10.665507 -7.987474
493 6 1 17.407671 11.494277 -7.987474
494 6 1 17.967260 12.323047 -7.987474
495 6 1 18.526849 13.151818 -7.987474
496 6 1 12.493018 5.763118 -7.987474
497 6 1 13.052607 6.591889 -7.987474
498 6 1 13.612196 7.420659 -7.987474
499 6 1 14.171785 8.249429 -7.987474
500 6 1 14.731374 9.078199 -7.987474
501 6 1 15.290963 9.906970 -7.987474
502 6 1 15.850552 10.735740 -7.987474
503 6 1 16.410141 11.564510 -7.987474
504 6 1 16.969730 12.393281 -7.987474
505 6 1 17.529319 13.222051 -7.987474
506 6 1 18.088908 14.050821 -7.987474
507 6 1 12.055076 6.662122 -7.987474
508 6 1 12.614665 7.490892 -7.987474
509 6 1 13.174254 8.319662 -7.987474
510 6 1 13.733843 9.148433 -7.987474
511 6 1 14.293432 9.977203 -7.987474
512 6 1 14.853021 10.805973 -7.987474
513 6 1 15.412610 11.634743 -7.987474
514 6 1 15.972199 12.463514 -7.987474
515 6 1 16.531788 13.292284 -7.987474
516 6 1 17.091377 14.121054 -7.987474
517 6 1 11.617134 7.561125 -7.987474
518 6 1 12.176723 8.389896 -7.987474
519 6 1 12.736312 9.218666 -7.987474
520 6 1 13.295901 10.047436 -7.987474
521 6 1 13.855490 10.876206 -7.987474
522 6 1 14.415079 11.704977 -7.987474
523 6 1 14.974668 12.533747 -7.987474
524 6 1 15.534257 13.362517 -7.987474
525 6 1 16.093846 14.191287 -7.987474
526 6 1 11.179193 8.460129 -7.987474
527 6 1 11.738782 9.288899 -7.987474
528 6 1 12.298371 10.117669 -7.987474
529 6 1 12.857960 10.946440 -7.987474
530 6 1 13.417549 11.775210 -7.987474
531 6 1 13.977138 12.603980 -7.987474
532 6 1 14.536727 13.432750 -7.987474
533 6 1 15.096316 14.261521 -7.987474
534 6 1 10.741251 9.359132 -7.987474
535 6 1 11.300840 10.187902 -7.987474
536 6 1 11.860429 11.016673 -7.987474
537 6 1 12.420018 11.845443 -7.987474
538 6 1 12.979607 12.674213 -7.987474
539 6 1 13.539196 13.502983 -7.987474
540 6 1 14.098785 14.331754 -7.987474
541 6 1 10.303310 10.258136 -7.987474
542 6 1 10.862899 11.086906 -7.987474
543 6 1 11.422488 11.915676 -7.987474
544 6 1 11.982077 12.744446 -7.987474
545 6 1 12.541666 13.573217 -7.987474
546 6 1 13.101255 14.401987 -7.987474
547 7 1 23.280599 -13.152606 -20.362708
548 7 1 24.101570 -12.581636 -20.362708
549 7 1 24.922541 -12.010666 -20.362708
550 7 1 25.743512 -11.439696 -20.362708
551 7 1 26.564483 -10.868726 -20.362708
552 7 1 27.385454 -10.297756 -20.362708
553 7 1 22.375639 -12.727109 -20.362708
554 7 1 23.196610 -12.156139 -20.362708
555 7 1 24.017581 -11.585169 -20.362708
556 7 1 24.838552 -11.014199 -20.362708
557 7 1 25.659523 -10.443229 -20.362708
558 7 1 26.480494 -9.872259 -20.362708
559 7 1 27.301465 -9.301289 -20.362708
560 7 1 21.470679 -12.301613 -20.362708
561 7 1 22.291650 -11.730643 -20.362708
562 7 1 23.112621 -11.159673 -20.362708
563 7 1 23.933592 -10.588703 -20.362708
564 7 1 24.754563 -10.017733 -20.362708
565 7 1 25.575534 -9.446763 -20.362708
566 7 1 26.396505 -8.875793 -20.362708
567 7 1 27.217475 -8.304823 -20.362708
568 7 1 20.565719 -11.876116 -20.362708
569 7 1 21.386690 -11.305146 -20.362708
570 7 1 22.207661 -10.734176 -20.362708
571 7 1 23.028632 -10.163206 -20.362708
572 7 1 23.849603 -9.592236 -20.362708
573 7 1 24.670574 -9.021266 -20.362708
574 7 1 25.491545 -8.450296 -20.362708
575 7 1 26.312515 -7.879326 -20.362708
576 7 1 27.133486 -7.308356 -20.362708
577 7 1 19.660759 -11.450619 -20.362708
578 7 1 20.481730 -10.879649 -20.362708
579 7 1 21.302701 -10.308679 -20.362708
580 7 1 22.123672 -9.737709 -20.362708
581 7 1 22.944643 -9.166739 -20.362708
582 7 1 23.765614 -8.595769 -20.362708
583 7 1 24.586585 -8.024799 -20.362708
584 7 1 25.407555 -7.453829 -20.362708
585 7 1 26.228526 -6.882859 -20.362708
586 7 1 27.049497 -6.311889 -20.362708
587 7 1 18.755799 -11.025123 -20.362708
588 7 1 19.576770 -10.454153 -20.362708
589 7 1 20.397741 -9.883183 -20.362708
590 7 1 21.218712 -9.312213 -20.362708
591 7 1 22.039683 -8.741243 -20.362708
592 7 1 22.860654 -8.170273 -20.362708
593 7 1 23.681625 -7.599303 -20.362708
594 7 1 24.502595 -7.028333 -20.362708
595 7 1 25.323566 -6.457363 -20.362708
596 7 1 26.144537 -5.886393 -20.362708
597 7 1 26.965508 -5.315423 -20.362708
598 7 1 18.671810 -10.028656 -20.362708
599 7 1 19.492781 -9.457686 -20.362708
600 7 1 20.313752 -8.886716 -20.362708
601 7 1 21.134723 -8.315746 -20.362708
602 7 1 21.955694 -7.744776 -20.362708
603 7 1 22.776665 -7.173806 -20.362708
604 7 1 23.597635 -6.602836 -20.362708
605 7 1 24.418606 -6.031866 -20.362708
606 7 1 25.239577 -5.460896 -20.362708
607 7 1 26.060548 -4.889926 -20.362708
608 7 1 18.587821 -9.032189 -20.362708
609 7 1 19.408792 -8.461219 -20.362708
610 7 1 20.229763 -7.890249 -20.362708
611 7 1 21.050734 -7.319279 -20.362708
612 7 1 21.871705 -6.748309 -20.362708
613 7 1 22.692675 -6.177339 -20.362708
614 7 1 23.513646 -5.606369 -20.362708
615 7 1 24.334617 -5.035399 -20.362708
616 7 1 25.155588 -4.464429 -20.362708
617 7 1 18.503832 -8.035723 -20.362708
618 7 1 19.324803 -7.464753 -20.362708
619 7 1 20.145774 -6.893783 -20.362708
620 7 1 20.966745 -6.322813 -20.362708
621 7 1 21.787715 -5.751843 -20.362708
622 7 1 22.608686 -5.180873 -20.362708
623 7 1 23.429657 -4.609903 -20.362708
624 7 1 24.250628 -4.038933 -20.362708
625 7 1 18.419843 -7.039256 -20.362708
626 7 1 19.240814 -6.468286 -20.362708
627 7 1 20.061785 -5.897316 -20.362708
628 7 1 20.882755 -5.326346 -20.362708
629 7 1 21.703726 -4.755376 -20.362708
630 7 1 22.524697 -4.184406 -20.362708
631 7 1 23.345668 -3.613436 -20.362708
632 7 1 18.335854 -6.042789 -20.362708
633 7 1 19.156825 -5.471819 -20.362708
634 7 1 19.977795 -4.900849 -20.362708
635 7 1 20.798766 -4.329879 -20.362708
636 7 1 21.619737 -3.758909 -20.362708
637 7 1 22.440708 -3.187939 -20.362708
638 8 1 13.397169 8.216005 15.356414
639 8 1 13.270164 7.224102 15.356414
640 8 1 13.143159 6.232200 15.356414
641 8 1 13.016154 5.240298 15.356414
642 8 1 12.889149 4.248396 15.356414
643 8 1 12.762144 3.256494 15.356414
644 8 1 14.319684 8.601966 15.356414
645 8 1 14.192679 7.610064 15.356414
646 8 1 14.065674 6.618162 15.356414
647 8 1 13.938669 5.626260 15.356414
648 8 1 13.811664 4.634358 15.356414
649 8 1 13.684659 3.642456 15.356414
650 8 1 13.557654 2.650554 15.356414
651 8 1 15.242199 8.987928 15.356414
652 8 1 15.115194 7.996025 15.356414
653 8 1 14.988189 7.004123 15.356414
654 8 1 14.861184 6.012221 15.356414
655 8 1 14.734179 5.020319 15.356414
656 8 1 14.607174 4.028417 15.356414
657 8 1 14.480169 3.036515 15.356414
658 8 1 14.353164 2.044613 15.356414
659 8 1 16.164714 9.373889 15.356414
660 8 1 16.037709 8.381987 15.356414
661 8 1 15.910704 7.390085 15.356414
662 8 1 15.783699 6.398183 15.356414
663 8 1 15.656694 5.406281 15.356414
664 8 1 15.529689 4.414379 15.356414
665 8 1 15.402684 3.422477 15.356414
666 8 1 15.275679 2.430574 15.356414
667 8 1 15.148674 1.438672 15.356414
668 8 1 17.087228 9.759850 15.356414
669 8 1 16.960223 8.767948 15.356414
670 8 1 16.833218 7.776046 15.356414
671 8 1 16.706213 6.784144 15.356414
672 8 1 16.579208 5.792242 15.356414
673 8 1 16.452203 4.800340 15.356414
674 8 1 16.325198 3.808438 15.356414
675 8 1 16.198193 2.816536 15.356414
676 8 1 16.071188 1.824634 15.356414
677 8 1 15.944183 0.832732 15.356414
678 8 1 18.009743 10.145812 15.356414
679 8 1 17.882738 9.153910 15.356414
680 8 1 17.755733 8.162008 15.356414
681 8 1 17.628728 7.170106 15.356414
682 8 1 17.501723 6.178204 15.356414
683 8 1 17.374718 5.186302 15.356414
684 8 1 17.247713 4.194399 15.356414
685 8 1 17.120708 3.202497 15.356414
686 8 1 16.993703 2.210595 15.356414
687 8 1 16.866698 1.218693 15.356414
688 8 1 16.739693 0.226791 15.356414
689 8 1 18.805253 9.539871 15.356414
690 8 1 18.678248 8.547969 15.356414
691 8 1 18.551243 7.556067 15.356414
692 8 1 18.424238 6.564165 15.356414
693 8 1 18.297233 5.572263 15.356414
694 8 1 18.170228 4.580361 15.356414
695 8 1 18.043223 3.588459 15.356414
696 8 1 17.916218 2.596557 15.356414
697 8 1 17.789213 1.604655 15.356414
698 8 1 17.662208 0.612753 15.356414
699 8 1 19.600763 8.933931 15.356414
700 8 1 19.473758 7.942029 15.356414
701 8 1 19.346753 6.950127 15.356414
702 8 1 19.219748 5.958225 15.356414
703 8 1 19.092743 4.966322 15.356414
704 8 1 18.965738 3.974420 15.356414
705 8 1 18.838733 2.982518 15.356414
706 8 1 18.711728 1.990616 15.356414
707 8 1 18.584723 0.998714 15.356414
708 8 1 20.396273 8.327990 15.356414
709 8 1 20.269268 7.336088 15.356414
710 8 1 20.142263 6.344186 15.356414
711 8 1 20.015258 5.352284 15.356414
712 8 1 19.888253 4.360382 15.356414
713 8 1 19.761248 3.368480 15.356414
714 8 1 19.634243 2.376578 15.356414
715 8 1 19.507238 1.384676 15.356414
716 8 1 21.191783 7.722050 15.356414
717 8 1 21.064778 6.730147 15.356414
718 8 1 20.937773 5.738245 15.356414
719 8 1 20.810768 4.746343 15.356414
720 8 1 20.683763 3.754441 15.356414
721 8 1 20.556758 2.762539 15.356414
722 8 1 20.429753 1.770637 15.356414
723 8 1 21.987293 7.116109 15.356414
724 8 1 21.860288 6.124207 15.356414
725 8 1 21.733283 5.132305 15.356414
726 8 1 21.606278 4.140403 15.356414
727 8 1 21.479273 3.148501 15.356414
728 8 1 21.352268 2.156599 15.356414
729 9 1 2.788172 28.559453 -6.073281
730 9 1 1.841156 28.238267 -6.073281
731 9 1 0.894139 27.917082 -6.073281
732 9 1 -0.052877 27.595897 -6.073281
733 9 1 -0.999893 27.274711 -6.073281
734 9 1 -1.946910 26.953526 -6.073281
735 9 1 3.539835 27.899905 -6.073281
736 9 1 2.592818 27.578720 -6.073281
737 9 1 1.645802 27.257534 -6.073281
738 9 1 0.698786 26.936349 -6.073281
739 9 1 -0.248231 26.615164 -6.073281
740 9 1 -1.195247 26.293978 -6.073281
741 9 1 -2.142263 25.972793 -6.073281
742 9 1 4.291498 27.240358 -6.073281
743 9 1 3.344481 26.919172 -6.073281
744 9 1 2.397465 26.597987 -6.073281
745 9 1 1.450449 26.276802 -6.073281
746 9 1 0.503432 25.955616 -6.073281
747 9 1 -0.443584 25.634431 -6.073281
748 9 1 -1.390600 25.313245 -6.073281
749 9 1 -2.337617 24.992060 -6.073281
750 9 1 5.043161 26.580810 -6.073281
751 9 1 4.096144 26.259625 -6.073281
752 9 1 3.149128 25.938439 -6.073281
753 9 1 2.202112 25.617254 -6.073281
754 9 1 1.255095 25.296069 -6.073281
755 9 1 0.308079 24.974883 -6.073281
756 9 1 -0.638938 24.653698 -6.073281
757 9 1 -1.585954 24.332512 -6.073281
758 9 1 -2.532970 24.011327 -6.073281
759 9 1 5.794823 25.921263 -6.073281
760 9 1 4.847807 25.600077 -6.073281
761 9 1 3.900791 25.278892 -6.073281
762 9 1 2.953774 24.957706 -6.073281
763 9 1 2.006758 24.636521 -6.073281
764 9 1 1.059742 24.315336 -6.073281
765 9 1 0.112725 23.994150 -6.073281
766 9 1 -0.834291 23.672965 -6.073281
767 9 1 -1.781307 23.351780 -6.073281
768 9 1 -2.728324 23.030594 -6.073281
769 9 1 6.546486 25.261715 -6.073281
770 9 1 5.599470 24.940530 -6.073281
771 9 1 4.652454 24.619344 -6.073281
772 9 1 3.705437 24.298159 -6.073281
773 9 1 2.758421 23.976974 -6.073281
774 9 1 1.811405 23.655788 -6.073281
775 9 1 0.864388 23.334603 -6.073281
776 9 1 -0.082628 23.013417 -6.073281
777 9 1 -1.029644 22.692232 -6.073281
778 9 1 -1.976661 22.371047 -6.073281
779 9 1 -2.923677 22.049861 -6.073281
780 9 1 6.351133 24.280982 -6.073281