
read_data   structure.data
Reading data file ...
  orthogonal box = (-27.521537 -27.521537 -27.521537) to (27.521537 27.521537 27.521537)
  1 by 1 by 1 MPI processor grid
WARNING: Atom style in data file id mol type x y z differs from currently defined atom style molecular (src/src/read_data.cpp:706)
  reading atoms ...
  31850 atoms
  scanning bonds ...
  3 = max bonds/atom
  orthogonal box = (-27.521537 -27.521537 -27.521537) to (27.521537 27.521537 27.521537)
  1 by 1 by 1 MPI processor grid
  reading bonds ...
  84000 bonds
Finding 1-2 1-3 1-4 neighbors ...
  special bond factors lj:    0        0        0       
  special bond factors coul:  0        0        0       
     6 = max # of 1-2 neighbors
    30 = max # of 1-3 neighbors
   180 = max # of 1-4 neighbors
    36 = max # of special neighbors
  special bonds CPU = 0.045 seconds
  read_data CPU = 0.243 seconds
mass        * 1.0

# Group all platelet atoms
group plates type 1
31850 atoms in group plates

# Automatic communication cutoff based on G value
variable comm_cutoff equal (2*5+1)*0.6
comm_modify cutoff ${comm_cutoff}
comm_modify cutoff 6.6

# WCA potential
pair_style      lj/cut 1.12246
pair_modify     shift yes
pair_coeff      * * 1.0 1.0 1.12246

neighbor     1.0 bin
neigh_modify every 1 delay 0 check yes

# Harmonic bonds (ignored by rigid fix)
bond_style   harmonic
bond_coeff   * 1000.0 1.0

# Rigid body integration with Langevin thermostat
fix  rig plates rigid/small molecule langevin 1.0 1.0 1.0 58291
  create bodies CPU = 0.003 seconds
  350 rigid bodies with 31850 atoms
  5 = max distance from body owner to body atom

# Initial velocities
velocity plates create 1.0 58291 mom yes rot yes dist gaussian
WARNING: Cannot count rigid body degrees-of-freedom before bodies are fully initialized (src/src/RIGID/fix_rigid_small.cpp:1129)

timestep 0.005

# Minimal thermo output
thermo_style custom step temp etotal press
thermo       1000

# Short minimization for test
min_style    cg
minimize     1.0e-4 1.0e-6  1000 5000

CITE-CITE-CITE-CITE-CITE-CITE-CITE-CITE-CITE-CITE-CITE-CITE-CITE

Your simulation uses code contributions which should be cited:

- Type Label Framework: https://doi.org/10.1021/acs.jpcb.3c08419

@Article{Gissinger24,
 author = {Jacob R. Gissinger, Ilia Nikiforov, Yaser Afshar, Brendon Waters, Moon-ki Choi, Daniel S. Karls, Alexander Stukowski, Wonpil Im, Hendrik Heinz, Axel Kohlmeyer, and Ellad B. Tadmor},
 title = {Type Label Framework for Bonded Force Fields in LAMMPS},
 journal = {J. Phys. Chem. B},
 year =    2024,
 volume =  128,
 number =  13,
 pages =   {3282–-3297}
}

CITE-CITE-CITE-CITE-CITE-CITE-CITE-CITE-CITE-CITE-CITE-CITE-CITE

Generated 0 of 0 mixed pair_coeff terms from geometric mixing rule
Neighbor list info ...
  update: every = 1 steps, delay = 0 steps, check = yes
  max neighbors/atom: 2000, page size: 100000
  master list distance cutoff = 2.12246
  ghost atom cutoff = 6.6
  binsize = 1.06123, bins = 52 52 52
  1 neighbor lists, perpetual/occasional/extra = 1 0 0
  (1) pair lj/cut, perpetual
      attributes: half, newton on
      pair build: half/bin/newton
      stencil: half/bin/3d
      bin: standard
WARNING: Cannot count rigid body degrees-of-freedom before bodies are fully initialized (src/src/RIGID/fix_rigid_small.cpp:1129)
Per MPI rank memory allocation (min/avg/max) = 56.93 | 56.93 | 56.93 Mbytes
   Step          Temp          TotEng         Press     
         0   1              7722862.2      5899996.6    
       121   1              2.3551618      0.43661965   
Loop time of 0.428673 on 1 procs for 121 steps with 31850 atoms

99.3% CPU use with 1 MPI tasks x no OpenMP threads

Minimization stats:
  Stopping criterion = energy tolerance
  Energy initial, next-to-last, final = 
      7722860.73667753  0.855281484625657  0.855208906561697
  Force two-norm initial, final = 2.224308e+12 7917.8059
  Force max component initial, final = 1.7980214e+11 4648.883
  Final line search alpha, max atom move = 2.3276348e-05 0.10820902
  Iterations, force evaluations = 121 235

MPI task timing breakdown:
Section |  min time  |  avg time  |  max time  |%varavg| %total
---------------------------------------------------------------
Pair    | 0.065476   | 0.065476   | 0.065476   |   0.0 | 15.27
Bond    | 0.088682   | 0.088682   | 0.088682   |   0.0 | 20.69
Neigh   | 0.15006    | 0.15006    | 0.15006    |   0.0 | 35.01
Comm    | 0.025524   | 0.025524   | 0.025524   |   0.0 |  5.95
Output  | 0          | 0          | 0          |   0.0 |  0.00
Modify  | 0          | 0          | 0          |   0.0 |  0.00
Other   |            | 0.09893    |            |       | 23.08

Nlocal:          31850 ave       31850 max       31850 min
Histogram: 1 0 0 0 0 0 0 0 0 0
Nghost:          31596 ave       31596 max       31596 min
Histogram: 1 0 0 0 0 0 0 0 0 0
Neighs:          83783 ave       83783 max       83783 min
Histogram: 1 0 0 0 0 0 0 0 0 0

Total # of neighbors = 83783
Ave neighs/atom = 2.6305495
Ave special neighs/atom = 26.175824
Neighbor list builds = 14
Dangerous builds = 0

reset_timestep 0

# Trajectory output
dump         traj all custom 1000 sim.lammpstrj id mol type x y z
dump_modify  traj sort id

# Short test run
run     5000
Generated 0 of 0 mixed pair_coeff terms from geometric mixing rule
Per MPI rank memory allocation (min/avg/max) = 52.43 | 52.43 | 52.43 Mbytes
   Step          Temp          TotEng         Press     
         0   0.95844813     0.88676096     0.34685282   
      1000   0.97380881     0.62433549     0.16879012   
      2000   1.0156173      0.6257444      0.16726811   
      3000   1.0023092      0.62520716    -0.094006979  
      4000   1.0435231      0.62657482     0.024364556  
      5000   0.99892126     0.6250023      0.02876214   
Loop time of 7.45262 on 1 procs for 5000 steps with 31850 atoms

Performance: 289830.967 tau/day, 670.905 timesteps/s, 21.368 Matom-step/s
98.5% CPU use with 1 MPI tasks x no OpenMP threads

MPI task timing breakdown:
Section |  min time  |  avg time  |  max time  |%varavg| %total
---------------------------------------------------------------
Pair    | 0.95903    | 0.95903    | 0.95903    |   0.0 | 12.87
Bond    | 1.6888     | 1.6888     | 1.6888     |   0.0 | 22.66
Neigh   | 0.67523    | 0.67523    | 0.67523    |   0.0 |  9.06
Comm    | 0.49227    | 0.49227    | 0.49227    |   0.0 |  6.61
Output  | 0.08362    | 0.08362    | 0.08362    |   0.0 |  1.12
Modify  | 3.3519     | 3.3519     | 3.3519     |   0.0 | 44.98
Other   |            | 0.2017     |            |       |  2.71

Nlocal:          31850 ave       31850 max       31850 min
Histogram: 1 0 0 0 0 0 0 0 0 0
Nghost:          32005 ave       32005 max       32005 min
Histogram: 1 0 0 0 0 0 0 0 0 0
Neighs:          48389 ave       48389 max       48389 min
Histogram: 1 0 0 0 0 0 0 0 0 0

Total # of neighbors = 48389
Ave neighs/atom = 1.5192779
Ave special neighs/atom = 26.175824
Neighbor list builds = 55
Dangerous builds = 0

# Write final configuration
write_data  sim_final.data
System init for write_data ...
Generated 0 of 0 mixed pair_coeff terms from geometric mixing rule
Total wall time: 0:00:08
