LAMMPS (29 Aug 2024 - Update 1)
# Strong harmonic bonds approach
units       lj
atom_style  molecular
boundary    p p p

log sim.log
